80
Time=0 Lattice="20.0 0.00000000 0.00000000 0.00000000 20.0 0.00000000 0.00000000 0.00000000 0.000000000000000001" Properties=id:I:1:pos:R:2:color:R:3:disp:R:2
1 17.784641466201656 6.394980680091919 0.9921848596381571 0.4119428370717771 1 0.029531091451644897 -0.005283429753035307
2 12.31133690021685 4.355159500743366 0.009137364039453422 0.4048481601971673 1 -0.029451757669448856 -0.005709110293537377
3 6.7826406308635345 14.147583155111851 0.04943248495478203 0.28323073468321835 1 -0.027034051716327667 -0.013006156310439108
4 5.167283221345582 16.184135215817054 0.32468147079177057 0.9682557135970293 1 -0.010519111528992655 0.02809534221887589
5 0.4004030453685803 11.585764300167796 0.34884651913024745 0.023394686117582886 1 -0.009069208987057214 -0.02859631925821304
6 3.0637468119389255 11.499369430019497 0.24585642648394102 0.9305938272206042 1 -0.015248614363372328 0.025835629552602768
7 8.12265442683829 7.581201324634719 0.09645453793410769 0.20478641622373567 1 -0.024212727323174477 -0.017712814733386036
8 9.58265174322025 9.392649050938896 0.6194902693100386 0.9855121785704396 1 0.0071694161742925635 0.029130730777978897
9 0.05548712278411694 17.33613896690145 0.17799042822391392 0.11749531285933024 1 -0.019320573657751083 -0.02295028045773506
10 9.567376155617906 13.014125702950547 0.3199881484456859 0.9664715782338593 1 -0.010800710879266266 0.027988294139504433
11 2.167388204445233 8.359139201181844 0.8349980099015435 0.8711823451647523 1 0.020099880173802376 0.02227094024419785
12 6.18841018387924 9.11670642373543 0.17704378249402825 0.8817057526082563 1 -0.019377373158931736 0.0229023452848196
13 1.1064972825102326 1.4538189356812925 0.1250786806039011 0.8308081079149789 1 -0.02249527908861637 0.019848486408591267
14 3.4565169105412097 4.585319626781459 0.9986581939312077 0.5366060872706444 1 0.029919492080807682 0.00219636526890099
15 9.767741083338745 14.532844198121088 0.24694538080230882 0.06876530786274682 1 -0.01518327742815018 -0.025874081999063492
16 7.559564840959501 17.403861072729395 0.5885692126281866 0.007907026493546576 1 0.005314152687788007 -0.029525578022003174
17 18.834206722421687 2.1168290339638496 0.5181925265131979 0.9996689223666673 1 0.0010915516177192309 0.029980136081576347
18 18.45070014192548 6.8372237816228125 0.003095529806332098 0.44444869487086525 1 -0.02981426753103733 -0.0033330782316625157
19 18.312611994392398 13.511824142720986 0.01897025005886932 0.36358013461532335 1 -0.02886178530752659 -0.008185192011296747
20 15.452970594185278 6.823736499035031 0.5616201856303457 0.0038115753840263777 1 0.0036972111556679015 -0.02977130562067032
21 19.377108982151412 7.039974482902567 0.3362666020000318 0.9724313435615635 1 -0.009824004024267202 0.02834588102996349
22 7.9914633802787165 3.5634511300650495 0.2288831202239024 0.079886161260459 1 -0.016267012804746628 -0.025206830352544788
23 15.570124617464502 15.173260880354547 0.026762101648446945 0.33861260407390814 1 -0.02839427441358566 -0.009683243930339818
24 0.32867954139936595 1.1164791832780585 0.096385860368781 0.20488031870146167 1 -0.02421684749424458 -0.017707180231809613
25 5.712581957102472 19.5252532345143 0.7942680962364449 0.9042354357764524 1 0.01765608601272106 0.024254126474261284
26 2.459900143910747 2.746854676166808 0.9700265612228961 0.6705140221359496 1 0.028201593086123466 0.010230841115117073
27 13.064924611537698 18.61308189322988 0.8506211220439399 0.8564615389865343 1 0.02103726752102375 0.021387692540884018
28 7.907824675123701 8.20260807365797 0.873974983008116 0.16812244413928895 1 0.022438498213887215 -0.01991265267133713
29 17.858880735944062 3.021584466938678 0.4970673706552747 8.600388840207529E-6 1 -1.7595775716472607E-4 -0.029999483376741413
30 2.5124685189284857 12.740812507007824 0.0015521492124124792 0.4606332621971942 1 -0.029906870797276493 -0.0023620042484253645
31 6.979226066447641 19.681426448612754 0.7189212489785046 0.05047415341752415 1 0.0131352748721838 -0.026971550658345222
32 10.603341799769137 19.303644074043746 5.29575298259255E-5 0.5072769997475576 1 -0.029996821656823158 4.366199718788292E-4
33 6.19383013660398 1.6981164529775405 0.0591677318988304 0.26406163643701663 1 -0.02644993551075459 -0.014156301505863661
34 10.01394149335373 14.831981931121863 0.5754375241757659 0.99427642058491 1 0.004526251461356879 0.029656585305929184
35 9.975429324190895 4.511858566899027 0.12690277542726763 0.16713597218064535 1 -0.022385833784937855 -0.01997184194624424
36 3.7887361899409977 1.458070319283753 0.7711850607610486 0.920069830885326 1 0.016271103173494342 0.025204189121723175
37 1.8837587530179922 19.78930178441367 0.32088914277554514 0.03318172612426479 1 -0.010746651329100137 -0.02800909616053104
38 2.362786807184396 16.627277896227074 0.2725055684135007 0.9452485638350062 1 -0.01364966575056315 0.026714913547039032
39 17.123297457567222 11.695087303634876 0.9903096637046123 0.5979613887093785 1 0.02941858023405075 0.0058776834048330775
40 18.374014249366226 8.627320771054661 0.8843934641822926 0.1802474946244571 1 0.02306360751390457 -0.019185150042176247
41 7.888841767036842 17.098816967073102 0.9161460744645236 0.22283137856574176 1 0.024968763813376427 -0.01663011685013771
42 19.69567081247054 8.305480683523212 0.06833692161458388 0.24767682080548742 1 -0.025899784639477733 -0.01513939071446657
43 3.2748291839723653 2.5643524914382287 0.9954859381032963 0.43296504537260894 1 0.029729155823588368 -0.004022097215056419
44 2.036799017802653 18.871659546568978 0.19262580769278898 0.894361643550041 1 -0.01844245195388794 0.023661699146032333
45 7.85871655202784 2.0533225623454787 0.6560328506757507 0.024969738321863444 1 0.009361971169710158 -0.02850181609392166
46 17.524186256562132 15.746530475331706 0.19801663679140985 0.10149523422519935 1 -0.01811900176107883 -0.023910285905003548
47 7.765122396116619 15.251048903905158 0.020166597283196086 0.3594300685167221 1 -0.02879000455141068 -0.008434196002781386
48 11.710562784295835 11.735964813844209 0.07645724588334912 0.23427168868319243 1 -0.025412565097212795 -0.01594369858503341
49 18.45485299313545 17.075959868057218 0.28895737317201436 0.04672192898669408 1 -0.012662557885050767 -0.027196684852242473
50 19.798309497722503 10.89923041968905 0.8134221179214034 0.11042770119313933 1 0.018805326893925667 -0.023374337702989578
51 5.227686001395111 13.735561001435885 0.672293637407281 0.030622856852862534 1 0.010337618179619312 -0.028162628412246704
52 19.560806324677177 11.020583654146982 0.7357142235056212 0.05904784291587589 1 0.014142853207886217 -0.02645712904632092
53 13.23384371712419 13.80338802333946 0.881266821158248 0.823474281951262 1 0.022876009345054623 0.0194084569811821
54 9.207505587846986 0.47073053373904994 0.4865592476411399 1.8068647157321038E-4 1 -8.064451394602714E-4 -0.029989158734679222
55 8.597801853510417 18.05969350278541 0.9994264173429988 0.5239427162188606 1 0.02996558509767055 0.0014365629758685825
56 3.6839305362207475 13.522592905823652 0.8368534394476064 0.8694993373909048 1 0.02021120674908161 0.022169960662722588
57 3.1984225619963436 7.7990694675174455 0.9999098616379087 0.5094936946004667 1 0.029994592070579525 5.696216830983758E-4
58 12.721793984060008 9.118823953100012 0.13452161047273392 0.8412118796122959 1 -0.021928703412413594 0.020472712814807892
59 2.037704956998694 16.183485856152743 0.4810283418868229 0.9996399465499498 1 -0.0011382994707673849 0.029978396371006966
60 13.142444941969536 4.117942748670833 0.8692971611570104 0.8370750758531 1 0.02215782925486565 0.02022450417280197
61 10.47067894954576 3.9194238029997064 0.12280541714849624 0.17178627897743204 1 -0.022631675004959106 -0.01969282329082489
62 0.9415039106443457 2.8007391496018896 0.5751160928124119 0.9943253711884482 1 0.004506965633481743 0.02965952269732952
63 17.552505150912378 11.660599902443447 0.9705451238003082 0.669077752728597 1 0.02823270671069622 0.01014466490596533
64 4.704069675819847 1.7151247321866192 0.001983367747992182 0.4555091694798983 1 -0.02988099865615368 -0.0026694498956203495
65 17.264592279191014 14.368370041084376 0.6677710834581809 0.9710125938393454 1 0.010066265240311626 0.02826075628399849
66 19.765849928226725 1.7797749843119037 0.4076970445950079 0.008593687033322639 1 -0.005538177210837603 -0.029484378173947334
67 9.475920410321098 14.372887810389782 0.507052071683351 4.973418851661471E-5 1 4.231242928653969E-4 -0.02999701537191868
68 5.78118601690198 9.146163398083749 0.18361379954464563 0.8871689194155754 1 -0.018983172252774242 0.023230135440826413
69 12.432666124988996 11.729685511129013 0.4190222962247584 0.9933990388025591 1 -0.00485866237431765 0.02960394322872162
70 12.206870410378613 11.013773908575022 0.20740489314367322 0.0945519719572745 1 -0.01755570620298385 -0.024326881393790252
71 5.790061439900123 14.006142975471459 0.8706066570780331 0.8356347802738047 1 0.022236399352550507 0.0201380867511034
72 4.571008994740398 12.970876425014692 0.021109992008152223 0.6437510356330276 1 -0.0287334006279707 0.008625062182545658
73 12.334102254081722 8.895518341022239 0.8873733090394311 0.1838640807439918 1 0.02324239909648895 -0.018968155607581142
74 6.866664576467352 8.247090883117401 0.03725804475966149 0.6893934604476842 1 -0.02776451781392097 0.011363607831299308
75 4.403656159314551 7.765449649137417 0.9169890002808346 0.22410115323765828 1 0.025019340217113495 -0.01655393093824387
76 4.275746947447924 16.45552107457457 0.5136476023875592 0.9998137082444529 1 8.18856118712572E-4 0.02998882159590721
77 1.6195999224649937 16.813292515816084 0.3401806545755415 0.9737697508580487 1 -0.009589160792529586 0.028426185250282288
78 7.662284869403573 17.10037019642407 0.4323512207275686 0.004597494290804138 1 -0.004058926831930878 -0.029724150896072388
79 16.04825751944486 5.019947203315578 0.10946960421210822 0.8122274971327039 1 -0.023431824520230297 0.01873365044593811
80 3.535931722056238 10.647081461387488 0.03186691276137904 0.3243542979961147 1 -0.02808798477053642 -0.010538741946220401
80
Time=1 Lattice="20.0 0.00000000 0.00000000 0.00000000 20.0 0.00000000 0.00000000 0.00000000 0.000000000000000001" Properties=id:I:1:pos:R:2:color:R:3:disp:R:2
1 17.8141725576533 6.389697250338884 0.010200870639630544 0.39951710156537046 1 -0.029387947635591515 -0.006028973880222429
2 12.281885142547402 4.349450390449828 0.8927418896994495 0.809441122146533 1 0.023564512991368313 0.018566467021039514
3 6.755606579147205 14.134576998801414 0.9978150227389334 0.5466926454105486 1 0.029868902263268025 0.002801558808948399
4 5.156764109816589 16.212230558035927 0.5480063123068329 0.9976900581473361 1 0.0028803786772101437 0.029861402854370542
5 0.3913338363815235 11.557167980909583 0.8392565886252494 0.13270588478120382 1 0.0203553956202287 -0.022037647240858986
6 3.0484981975755545 11.525205059572102 0.03887797613236149 0.30669588958272764 1 -0.027667321345708082 -0.011598246588837995
7 8.098441699515114 7.563488509901333 0.8661434410919633 0.15950186410886774 1 0.02196860610188436 -0.020429887815303995
8 9.589821159394543 9.421779781716875 0.999717427380395 0.5168075213020702 1 0.029983045708441517 0.001008451280331201
9 0.03616654912636719 17.313188686443716 0.9984536485561891 0.4607067405141401 1 0.029907217909041744 -0.002357595489979971
10 9.556575444738641 13.042113997090055 0.9999767305866786 0.5048237819038396 1 0.029998603240843684 2.894269084960102E-4
11 2.1874880846190337 8.381410141426041 0.9975818024061838 0.549115678904128 1 0.029854907520102322 0.002946940672626899
12 6.16903281072031 9.13960876902025 0.1665187574867621 0.8725456494066559 1 -0.020008874662906073 0.022352739089644073
13 1.0840020034216167 1.473667422089882 0.10441938824743197 0.19419617463892963 1 -0.023734836625863554 -0.018348229460368633
14 3.4864364026220187 4.58751599205036 0.9978243969059748 0.45340740568285026 1 0.02986946425854974 -0.002795555700601921
15 9.752557805910595 14.506970116122027 0.9947360314200302 0.42763799882010645 1 0.029684162425361798 -0.004341720149799499
16 7.564878993647291 17.374335494707395 0.7391991152300674 0.060928498678002374 1 0.014351946725016312 -0.026344289732782987
17 18.835298274039403 2.146809170045426 0.35914442911405287 0.020250369306662297 1 -0.008451334461641766 -0.028784978551693374
18 18.420885874394443 6.833890703391148 0.8174894043571375 0.8862647772201732 1 0.019049363826580464 0.023175886104164753
19 18.28375020908487 13.503638950709686 0.9997390607808831 0.4838484945023466 1 0.02998434397001015 -9.690903403036012E-4
20 15.456667805340942 6.793965193414362 0.999901669132881 0.4900842953775558 1 0.029994100292760235 -5.949422802185533E-4
21 19.367284978127145 7.0683203639325285 0.0034830349269717176 0.4410856265868066 1 -0.029791018341873754 -0.003534862456702358
22 7.97519636747397 3.538244299712506 0.9975332626544183 0.4503950350020326 1 0.02985199579262908 -0.002976297903204495
23 15.541730343050915 15.163577636424208 0.9988884776910648 0.5333209667790707 1 0.02993330920173463 0.0019992580428291468
24 0.3044626939051227 1.0987720030462498 0.020207117751252446 0.35929182630906087 1 -0.0287875718845189 -0.008442490113405293
25 5.730238043115193 19.549507360988557 0.9984795551450245 0.5389632275667526 1 0.029908773712770096 0.0023377936855888334
26 2.488101736996871 2.7570855172819257 0.9874547773559468 0.3886993259999548 1 0.02924728603233173 -0.006678040300943859
27 13.085961879058722 18.63446958577076 0.9979687907974412 0.4549768571539671 1 0.02987812772960562 -0.0027013885962368293
28 7.930263173337586 8.182695420986633 0.08904751902897812 0.21518767866582406 1 -0.02465714801586254 -0.017088738696222593
29 17.858704778186897 2.9915849835619355 0.998166748913826 0.542777216793863 1 0.029890004337090735 0.0025666329563043813
30 2.4825616481312096 12.738450502759399 0.9977243622654821 0.5476493358549629 1 0.02986346148631301 0.0028589601274009464
31 6.992361341319825 19.65445489795441 0.9997379860423734 0.5161847244744092 1 0.02998427901068046 9.71083463546287E-4
32 10.573344978112313 19.304080694015624 0.9992163800311188 0.47201775726240686 1 0.029952981911782584 -0.0016789345143642732
33 6.1673802010932235 1.6839601514716769 0.9999405326365383 0.5077112792125869 1 0.029996431305736468 4.626767426914774E-4
34 10.018467744815087 14.861638516427789 0.3657561174757768 0.018358452783792167 1 -0.008054632970691838 -0.02889849290199636
35 9.953043490405957 4.491886724952785 0.1180642482550946 0.17731581764974286 1 -0.022916145422625614 -0.019361051209624475
36 3.8050072931144925 1.4832745084054757 0.005832993564786837 0.4238490331587313 1 -0.029650019525703553 -0.004569057877887353
37 1.873012101688893 19.761292688253135 0.1560470502780652 0.8628999426530406 1 -0.02063717678289613 0.021773996347722147
38 2.3491371414338325 16.65399280977411 0.4267450778832075 0.9946046061104392 1 -0.0043952952804366275 0.029676276052187506
39 17.15271603780127 11.700964987039711 0.9765195996989036 0.6514234826663182 1 0.02859117638212699 0.009085409087148227
40 18.39707785688013 8.608135621012487 0.9991320662807803 0.4705520729035346 1 0.029947923539211992 -0.0017668755999682253
41 7.9138105308502205 17.082186850222968 0.5083083632775074 6.903366599808614E-5 1 4.98501783583439E-4 -0.029995857193772183
42 19.66977102783106 8.290341292808748 0.9998944180430742 0.4897252343396011 1 0.029993665008876746 -6.16485938108955E-4
43 3.3045583397959533 2.560330394223172 0.9775186208843982 0.6482429313952686 1 0.028651116807229635 0.00889457574530941
44 2.018356565848766 18.89532124571501 0.31814416563295483 0.03424421044213971 1 -0.010911350307823978 -0.027945348002999748
45 7.86807852319755 2.0248207462515566 0.9990538853860673 0.530744421950493 1 0.02994323353628444 0.0018446653424800332
46 17.506067254801053 15.722620189426706 0.9998625199857263 0.5117243811572055 1 0.029991751147107705 7.034628682118197E-4
47 7.73633239156521 15.242614707902376 0.9979000549508907 0.45422298306027425 1 0.02987400370007999 -0.0027466210534378734
48 11.685150219198622 11.720021115259176 0.008260405029420936 0.5905106111910138 1 -0.029504375524330616 0.005430636639451674
49 18.442190435250396 17.048763183204976 0.999843763694344 0.5124984757419734 1 0.029990626473864388 7.499085608266019E-4
50 19.817114824616425 10.875856081986061 0.582866220376252 0.00691462248353536 1 0.004971973174625421 -0.02958512236566902
51 5.238023619574729 13.707398373023636 0.8459298393173849 0.8610159917092984 1 0.020755790228902917 0.02166095936674226
52 19.57494917788506 10.994126525100661 0.8294743724649762 0.12390607836763695 1 0.019768462064918477 -0.022565634974920923
53 13.256719726469242 13.82279648032064 0.9999748534902321 0.49498543347626267 1 0.02999849130849932 -3.0087399241803095E-4
54 9.206699142707528 0.4407413750043716 0.9999874903850372 0.49646312871702436 1 0.029999249346049927 -2.1221227643347814E-4
55 8.627767438608089 18.061130065761276 0.9982136586975214 0.5422273641994099 1 0.029892819578803284 0.0025336418567917032
56 3.704141742969828 13.544762866486373 0.9997253016313172 0.5165717503447572 1 0.029983518664913816 9.943050394892832E-4
57 3.228417154066925 7.799639089200543 0.99911621784579 0.47028466585559026 1 0.029946973442461337 -0.0017829200707949083
58 12.699865280647593 9.13929666591482 0.8589071820496479 0.15188272856236945 1 0.021534430963023328 -0.020887036325098425
59 2.0365666575279278 16.21346425252375 0.29030255043879294 0.9539019493762118 1 -0.012581846796564423 0.02723411657921245
60 13.164602771224402 4.138167252843637 0.0036058566216683463 0.44005957608014157 1 -0.02978364804547206 -0.0035964253679053124
61 10.448047274540802 3.899730979708881 0.15577535732520842 0.13735775842379855 1 -0.020653478591395952 -0.02175853452713429
62 0.9460108762778283 2.830398672299218 0.9991545853147816 0.529063722391126 1 0.029949275549071466 0.001743823368515438
63 17.580737857623078 11.670744567349413 0.9786017838595291 0.6447077485364088 1 0.028716106301967508 0.00868246469158487
64 4.674188677163691 1.7124552822909997 0.7908325630345897 0.9067141751632606 1 0.01744995420314553 0.02440285109864028
65 17.274658544431325 14.396630797368374 0.9999389451220706 0.49218647645224406 1 0.029996337401103933 -4.6881142370840747E-4
66 19.76031175101589 1.7502906061379555 0.04788165932966948 0.7135158214969255 1 -0.02712709988446063 0.01281094902735464
67 9.476343534613964 14.342890795017865 0.017568604744388316 0.6313771246135481 1 -0.028945883158777115 0.00788262732524896
68 5.762202844649206 9.169393533524577 0.15322138955458875 0.8602007708730641 1 -0.020806716873834917 0.021612046509058562
69 12.42780746261468 11.759289454357734 0.1476756368920007 0.14522183951017692 1 -0.021139462429553918 -0.021286690276942095
70 12.18931470417563 10.989447027181232 0.04589201640244961 0.709250900196312 1 -0.02724647869242254 0.012555053862743417
71 5.812297839252672 14.026281062222566 0.7117386513592034 0.04704664310705714 1 0.012704319040341338 -0.02717720132541788
72 4.542275594112425 12.97950148719724 0.9989656441021098 0.46785523361779136 1 0.02993793880081003 -0.0019286859928976617
73 12.35734465317821 8.876550185414658 0.1120295236801715 0.8154027734566793 1 -0.023278229134167015 0.01892416685857267
74 6.838900058653429 8.2584544909487 0.9992037434617212 0.47179321865572016 1 0.02995222514656213 -0.0016924069111042264
75 4.428675499531664 7.748895718199172 0.9979408502452578 0.45466888864113664 1 0.02987645125385688 -0.0027198667033025534
76 4.276565803566637 16.485509896170477 0.32283841059943863 0.96756151599663 1 -0.0106296950454635 0.028053690119033404
77 1.6100107616724628 16.84171870106637 0.38360475559272433 0.98626345439419 1 -0.006983714713277355 0.029175807467693268
78 7.65822594257164 17.070646045527994 0.7777733591134086 0.0842573380480981 1 0.016666401857164847 -0.02494456018162961
79 16.02482569492463 5.038680853761516 0.9999976591872122 0.5015299697083617 1 0.029999860540852456 9.179818552989248E-5
80 3.5078437372857003 10.636542719441266 0.2879905934581033 0.9528266903990452 1 -0.012720564182475457 0.027169600975325968
80
Time=2 Lattice="20.0 0.00000000 0.00000000 0.00000000 20.0 0.00000000 0.00000000 0.00000000 0.000000000000000001" Properties=id:I:1:pos:R:2:color:R:3:disp:R:2
1 17.78478461001771 6.3836682764586605 0.8206209066746335 0.8836694335012055 1 0.019237254317978757 0.023020165911350005
2 12.305449655538773 4.368016857470867 0.0016394847158205383 0.4595426544903509 1 -0.029901630421409864 -0.0024274406903423804
3 6.785475481410472 14.137378557610361 0.7333129815914017 0.0577726233927503 1 0.01399877931679021 -0.026533643394989325
4 5.159644488493797 16.242091960890292 0.296972948961588 0.9569245195288234 1 -0.012181622803479984 0.027415470589228857
5 0.411689232001752 11.535130333668725 0.738373331284033 0.06047963081041097 1 0.014302400089739051 -0.026371222543552997
6 3.020830876229848 11.513606812983262 0.2721209910442528 0.9450518590876197 1 -0.01367274049467195 0.026703111461916267
7 8.120410305617 7.543058622086029 0.10791475111767923 0.189727285104074 1 -0.023525114543541833 -0.01861636258560984
8 9.619804205102984 9.422788232997206 0.9979858756376256 0.4551662218251992 1 0.029879152603647978 -0.002690026696375163
9 0.06607376703540879 17.31083109095374 0.9987056800134025 0.4640466312792559 1 0.029922339795966733 -0.002157202050802539
10 9.586574047979482 13.04240342399855 0.9989904130171061 0.5317579551768972 1 0.029939424187841845 0.0019054772728609461
11 2.2173429921391374 8.384357082098667 0.9988304082742958 0.5341792887711162 1 0.029929823870622534 0.0020507572833854608
12 6.149023936057404 9.161961508109894 0.14541493977848313 0.8525187017275868 1 -0.021275103732497625 0.021151122222167137
13 1.0602671667957537 1.4553191926295135 0.02785564897093601 0.33544085625118253 1 -0.028328660967106806 -0.009873548591944668
14 3.5163058668805682 4.584720436349759 0.9996043875278137 0.4801139254009704 1 0.029976263697448297 -0.0011931644936854216
15 9.782241968335956 14.502628395972224 0.08657291609361528 0.21879180969846712 1 -0.024805625485768777 -0.01687249172511916
16 7.579230940372305 17.347991204974612 0.6431690741889146 0.020935686785282348 1 0.008590144338338782 -0.02874385841478189
17 18.826846939577763 2.1180241914937312 0.059363443112699754 0.7363036705904185 1 -0.02643819406543859 0.014178220585185896
18 18.439935238221025 6.857066589495311 0.005494624466864162 0.4260781928736025 1 -0.029670321854691317 -0.004435308326337212
19 18.313734553054886 13.50266986036938 0.9992030254609627 0.5282194856547994 1 0.029952181850468287 0.0016931691575361428
20 15.486661905633703 6.793370251134142 0.9978846211515076 0.4540554244679545 1 0.029873077413293623 -0.002756674545229737
21 19.33749395978527 7.064785501475825 0.8097494151031064 0.8924987896074119 1 0.01858496517911343 0.023549927722284064
22 8.0050483632666 3.5352680018092997 0.9995936968572996 0.5201528673011218 1 0.029975621844940126 0.0012091720394187353
23 15.571663652252653 15.165576894467037 0.9995052709616088 0.522237002531137 1 0.029970316798635228 0.0013342201759497596
24 0.27567512202060485 1.0903295129328434 0.010176958769268551 0.3996337293734735 1 -0.029389381401479002 -0.006021976017860675
25 5.760146816827962 19.55184515467414 0.9999990364676942 0.500981596341401 1 0.029999942593361972 5.889578127974517E-5
26 2.5173490230292046 2.750407476980982 0.9824319349638515 0.6313751427288818 1 0.028945915495081544 0.007882508399593058
27 13.115840006788325 18.631768197174523 0.9981527823291321 0.4570604441366193 1 0.029889167221611175 -0.0025763733760987696
28 7.905606025321724 8.16560668229041 0.8953552058380347 0.19390481673707244 1 0.02372131153985568 -0.01836571036832061
29 17.888594782523988 2.9941516165182414 0.9999626649166428 0.493889869931927 1 0.029997759295104866 -3.6660779675297433E-4
30 2.5124251096175243 12.741309462886804 0.9987627902697251 0.46484777329445337 1 0.029925767166046804 -0.0021091335847034506
31 7.022345620330505 19.655425981417956 0.9989666412331397 0.4678707152815486 1 0.02993799832236083 -0.0019277570733435341
32 10.603297960024094 19.302401759501265 0.9989376601517911 0.4674237619996446 1 0.029936258719519868 -0.0019545742219390836
33 6.19737663239896 1.6844228282143696 0.999991493653348 0.5029165517814802 1 0.029999488966678547 1.7499310308251575E-4
34 10.010413111844393 14.832740023525794 0.6153870246784754 0.9865036839900073 1 0.006923221497244599 0.02919022110912112
35 9.930127344983333 4.47252567374316 0.1743204909327169 0.12061515927268063 1 -0.019540770815139406 -0.02276309075944702
36 3.7753572735887886 1.4787054505275883 0.7615160059068795 0.9261565189628254 1 0.015690959899079284 0.025569390395775417
37 1.8523749249059982 19.783066684600854 0.29957336428807135 0.04192886611662833 1 -0.012025598025927951 -0.02748426776608615
38 2.344741846153397 16.683669085826295 0.327635402954391 0.9693510900011897 1 -0.010341875713157853 0.02816106510168715
39 17.18130721418339 11.71005039612686 0.972482959205675 0.6635843918601299 1 0.028348977949143206 0.00981506364898995
40 18.427025780419342 8.606368745412517 0.9992716422623866 0.47302172665607567 1 0.029956298097985987 -0.0016186963769811353
41 7.914309032633803 17.0521909930292 0.7513133472144421 0.0677482197701515 1 0.015078800437612703 -0.025935106133965623
42 19.699764692839935 8.289724806870638 0.9993717180777775 0.4749423228520931 1 0.029962303011036008 -0.0015034606251797464
43 3.333209456603182 2.569224969968481 0.9914358144702027 0.40785424450356667 1 0.02948614840938414 -0.00552874524375431
44 2.0074452155409404 18.86737589771201 0.15401443600759557 0.8609625874088032 1 -0.020759134307187718 0.02165775573241499
45 7.898021756733833 2.0266654115940383 0.9987767665743232 0.5349533564291481 1 0.02992660640735039 0.0020972014146835288
46 17.53605900594816 15.723323652294916 0.9997573351844878 0.515575812315879 1 0.02998544005904435 9.345487373312915E-4
47 7.766206395265289 15.239868086848936 0.9991604864514583 0.5289621954544809 1 0.0299496295911343 0.0017377317507123778
48 11.655645843674293 11.725451751898625 0.00302833608491504 0.4450530686437193 1 -0.029818299659150643 -0.003296815861944814
49 18.472181061724257 17.049513091765803 0.999984198391703 0.4960249077235721 1 0.029999052555889166 -2.3850554177243355E-4
50 19.82208679779105 10.84627095962039 0.8461929139418731 0.13923627353011947 1 0.020771574636191368 -0.021645823379440557
51 5.258779409803633 13.729059332390378 0.7455129016033699 0.0644274857772888 1 0.014730774003839271 -0.026134350689498567
52 19.594717639949977 10.97156089012574 0.7424069211365423 0.06269131659078375 1 0.014544415059993236 -0.026238520628955764
53 13.28671821777774 13.822495606328225 0.999513241175386 0.47794275877493464 1 0.029970794569517067 -0.0013234344778752418
54 9.236698392053576 0.4405291627279375 0.9980806574818211 0.5437682378269536 1 0.02988483937215082 0.0026260942628721622
55 8.657660258186894 18.06366370761807 0.9998262318122155 0.4868190291555837 1 0.02998957396586927 -7.908582521717241E-4
56 3.734125261634741 13.545757171525864 0.9986728839027139 0.46359457650087743 1 0.02992037360000344 -0.0021843254512563313
57 3.258364127509388 7.797856169129748 0.9982737027176 0.5415128556003176 1 0.02989642253414248 0.002490771366935516
58 12.721399711610616 9.11840962958972 0.1309245616172015 0.8373178334783755 1 -0.022144526344146872 0.0202390700463382
59 2.0239848107313634 16.240698369102958 0.45316889706512425 0.9978020166671717 1 -0.0028098661365395456 0.02986812057959257
60 13.134819123178929 4.134570827475731 0.8957306261430568 0.8056096718568053 1 0.023743837124355516 0.018336579968345815
61 10.427393795949406 3.877972445181747 0.08910312757969557 0.215107458442289 1 -0.024653812382113324 -0.017093552519043598
62 0.9759601518269001 2.832142495667732 0.9990034799601293 0.5315519728017264 1 0.0299402092276621 0.0018931183952959052
63 17.60945396392505 11.679427032040998 0.9639538965290033 0.6864048869948287 1 0.02783723308446592 0.011184292935524892
64 4.6916386313668355 1.7368581333896387 0.015098718384615684 0.37805432731024136 1 -0.02909407759896774 -0.007316740537939623
65 17.304654881832434 14.396161985944666 0.9988585678907025 0.4662342001125787 1 0.02993151476572258 -0.0020259480401030516
66 19.73318465113143 1.76310155516531 0.11314861602094356 0.18322562175344947 1 -0.023211082563212544 -0.019006462305403222
67 9.447397651455187 14.35077342234311 0.7474081556385478 0.06550120308160562 1 0.014844489052889112 -0.02606992731384178
68 5.741396127775371 9.191005580033636 0.200429355739484 0.9003216570426078 1 -0.017974238869101378 0.02401929970782084
69 12.406668000185128 11.738002764080793 0.029565815252376504 0.6693861795449643 1 -0.02822605194350928 0.010163171081867052
70 12.16206822548321 11.002002081043976 0.016839905765655805 0.3713286226876404 1 -0.028989605309938313 -0.007720282547097635
71 5.825002158293014 13.99910386089715 0.9531142991703578 0.7113940204626316 1 0.02718685786203145 0.012683641186614098
72 4.572213532913235 12.977572801204346 0.9976176298375001 0.4512486464299842 1 0.029857057944515555 -0.0029250812293142676
73 12.334066424044039 8.895474352273233 0.886341931605424 0.18260448666783285 1 0.02318051644897317 -0.01904373125395248
74 6.868852283799992 8.256762084037597 0.9981090684500223 0.5434437098767011 1 0.02988654464467856 0.0026066226394968026
75 4.45855195078552 7.74617585149587 0.9999977368675723 0.5015043694047554 1 0.029999864452183583 9.026216500781143E-5
76 4.265936108521174 16.513563586289507 0.506278812392148 0.9999605749606104 1 3.767287322383852E-4 0.02999763359861257
77 1.603027046959184 16.870894508534064 0.33850199056870234 0.9732001616121115 1 -0.009689880633644322 0.028392009895287045
78 7.674892344428805 17.045701485346363 0.6320076821624023 0.017740762815153355 1 0.007920461077238296 -0.028935554769926264
79 16.054825555465484 5.0387726519470455 0.9998561997965463 0.5119908100208131 1 0.029991372977132523 7.194486249815865E-4
80 3.4951231731032237 10.663712320416593 0.02552851675891704 0.34227615401909983 1 -0.02846828852440467 -0.009463430602596527